2
Lattice="10.0 0.0 0.0 0.0 10.0 0.0 0.0 0.0 10.0" Properties=species:S:1:pos:R:3:qm_forces:R:3 config_type=dimer qm_energy=-2.4 pbc="T T T"
Si       0.00000000       0.00000000       0.00000000       0.00000000      -1.00000000       0.00000000
Si       0.00000000       6.00000000       0.00000000       0.00000000       1.00000000       0.00000000
