2
Lattice="10 0.00 0.00 0.00 10 0.00 0.00 0.00 10" Properties=species:S:1:pos:R:3:qm_forces:R:3 qm_energy=-2.4 config_type=dimer pbc="T T T"
Si 0.000000 0.000000 0.000000 0 -1 0
Si 0.000000 5.000000 0.000000 0 1 0
2
Lattice="10 0.00 0.00 0.00 10 0.00 0.00 0.00 10" Properties=species:S:1:pos:R:3:qm_forces:R:3 qm_energy=-2.4 config_type=dimer pbc="T T T"
Si 0.000000 0.000000 0.000000 0 -1 0
Si 0.000000 6.000000 0.000000 0 1 0
2
Lattice="10 0.00 0.00 0.00 10 0.00 0.00 0.00 10" Properties=species:S:1:pos:R:3:qm_forces:R:3 qm_energy=-2.4 config_type=dimer pbc="T T T"
Si 0.000000 0.000000 0.000000 0 -1 0
Si 0.000000 5.100000 0.000000 0 1 0
2
Lattice="10 0.00 0.00 0.00 10 0.00 0.00 0.00 10" Properties=species:S:1:pos:R:3:qm_forces:R:3 qm_energy=-2.4 config_type=dimer pbc="T T T"
Si 0.000000 0.000000 0.000000 0 -1 0
Si 0.000000 6.100000 0.000000 0 1 0
2
Lattice="10 0.00 0.00 0.00 10 0.00 0.00 0.00 10" Properties=species:S:1:pos:R:3:qm_forces:R:3 qm_energy=-2.4 config_type=dimer pbc="T T T"
Si 0.000000 0.000000 0.000000 0 -1 0
Si 0.000000 5.200000 0.000000 0 1 0
2
Lattice="10 0.00 0.00 0.00 10 0.00 0.00 0.00 10" Properties=species:S:1:pos:R:3:qm_forces:R:3 qm_energy=-2.4 config_type=dimer pbc="T T T"
Si 0.000000 0.000000 0.000000 0 -1 0
Si 0.000000 6.200000 0.000000 0 1 0