1
Lattice="10 0.00 0.00 0.00 10 0.00 0.00 0.00 10" Properties=species:S:1:pos:R:3:forces:R:3 energy=0.5 config_type=isolated pbc="T T T"
Si 0.000000 0.000000 0.000000 0 0 0
2
Lattice="10 0.00 0.00 0.00 10 0.00 0.00 0.00 10" Properties=species:S:1:pos:R:3:forces:R:3 energy=-2.4 config_type=dimer pbc="T T T"
Si 0.000000 0.000000 0.000000 0 -1 0
Si 0.000000 5.000000 0.000000 0 1 0
2
Lattice="10 0.00 0.00 0.00 10 0.00 0.00 0.00 10" Properties=species:S:1:pos:R:3:forces:R:3 energy=-2.4 config_type=dimer pbc="T T T"
Si 0.000000 0.000000 0.000000 0 -1 0
Si 0.000000 6.000000 0.000000 0 1 0