200
Lattice="13.854441 0.0 0.0 0.0 13.854441 0.0 0.0 0.0 13.854441" Properties=species:S:1:pos:R:3:initial_magmoms:R:1:forces:R:3 energy=-31027.40625783 pbc="T T T"
C        9.71904276      13.59540452       0.03473308       0.00000000      -0.10334000       4.72858000       0.89317000
C        0.92797046      11.17449335       5.39291043       0.00000000      -3.21966000       0.01019000      -0.28063000
C        6.01124799      -0.06040536       5.15816078       0.00000000      -0.38813000      -2.85166000      -2.25392000
C       10.28589721       4.69852585       6.69860837       0.00000000       9.70301000       1.38278000       2.75353000
C       13.45479579       1.94879338      13.52760088       0.00000000      -3.83529000      -1.52291000      -2.78964000
C       11.64780262      12.07289843       2.36777938       0.00000000      -0.55499000       1.29769000       4.58169000
C        4.83223506       9.61712949       8.29132876       0.00000000      -0.30783000       3.98691000       1.07439000
C        7.44885406      10.57779643      12.13010342       0.00000000       0.59258000       3.49977000      -4.68043000
C        9.09251723       5.05739743       1.66034392       0.00000000      -0.06635000      -3.46748000       0.76507000
C       13.06760573      11.72469477       3.66950110       0.00000000      -4.38882000       2.65595000      -5.78251000
C        3.54051625       3.72813309      11.67969554       0.00000000      -5.94573000       1.27179000      -0.28547000
C       13.28980326       0.37769977       3.41111577       0.00000000       0.44634000      -0.87734000       0.49616000
C        5.25101325       2.10406010       7.82903377       0.00000000      -0.17939000      -1.28332000       2.04248000
C        0.59423083       4.79427389       7.53928199       0.00000000      -0.28443000       3.16813000       0.57779000
C        7.55651692       4.70502358       5.55967634       0.00000000      -0.12128000       1.92688000       1.82520000
C       10.16899344       4.42145088       9.89471707       0.00000000       2.72071000      -3.76520000      -1.55877000
C        8.06192693      11.23830691       7.27489770       0.00000000      -0.42518000      -2.56282000      -0.21131000
C        5.30720686      12.76919493       6.29141249       0.00000000      -1.48694000      -0.56293000      -2.58764000
C        1.40355185       5.36298484       6.43167485       0.00000000      -0.42295000       0.67318000       4.69423000
C        6.44907603       9.65758446       2.99222675       0.00000000      -0.67785000      -4.08753000      -8.69568000
C        8.56264028       2.91070722       0.11404976       0.00000000       2.50018000      -0.92422000       0.42377000
C        2.36575664       7.53802124       5.61527421       0.00000000       2.19933000       1.65803000      10.45502000
C        2.52624648       1.08826634       6.88475664       0.00000000      -9.86556000      19.25512000       1.63318000
C       10.10459800      13.21780173       8.09549624       0.00000000       0.65498000      -0.16782000      -4.21124000
C       10.83270429       8.96602618       9.03769521       0.00000000      -3.32251000       3.65258000      -2.18934000
C        3.57306033      12.72030261       7.98635095       0.00000000      -1.30220000       2.83536000       1.00438000
C        3.42681285       7.01388003      11.71160232       0.00000000      -2.41864000       2.35848000       2.83247000
C       11.92500227       2.44360474       6.25976895       0.00000000      -0.95511000       2.97089000       0.62870000
C        9.13812605       5.38045529       0.11368954       0.00000000      -2.98864000       6.90889000       8.40054000
C        5.31363532       4.89113029       6.79733512       0.00000000       0.29087000       3.43628000       5.28651000
C        3.22568793       0.41301474       8.28301610       0.00000000       0.54578000      -2.33371000       0.65326000
C       11.31500509       2.12420446       0.06644590       0.00000000      -1.66999000       0.58034000      -2.82284000
C        8.30478142       1.10426822       2.39645808       0.00000000      -2.24888000       1.17191000       7.49249000
C       13.89230519       0.54725042       7.46539626       0.00000000      -0.56060000       3.84308000       1.93589000
C        0.48523794       9.67980698      10.78119348       0.00000000       3.00863000       1.74338000       3.79770000
C        9.83992276       1.53030614       0.45996744       0.00000000       0.74299000      -3.75577000      -2.38524000
C        8.97832893       0.90869893       4.91665017       0.00000000      -5.97308000      -2.80165000      -1.16991000
C       13.66679645       1.88935783       7.91562403       0.00000000      -0.29355000      -3.13922000      -0.69536000
C       10.15279760       3.12981520      10.44180124       0.00000000      -3.64958000       6.91142000      -2.87218000
C       11.59609784       9.13761343      11.91099543       0.00000000      -4.65680000       1.52312000       0.19966000
C        6.93797155       1.38142631       7.22765405       0.00000000       2.05521000     -23.62497000       4.17157000
C        8.39854828       3.70829353      12.77030328       0.00000000      -3.30459000      -2.17895000      -1.30511000
C        6.02672340      11.85599330      10.13999610       0.00000000      -1.56628000      -0.68192000       0.16973000
C        7.18847369       1.05888107       9.32532726       0.00000000      -5.17372000       6.80914000       1.24491000
C       12.77509692       9.05775644      13.63049782       0.00000000      31.86637000     -11.83758000      18.89445000
C        0.68204028       2.12632419      10.90919466       0.00000000      -1.55034000       4.56761000       0.66487000
C       10.80970592       2.20361811      10.76890459       0.00000000       3.62287000      -6.14852000       1.93936000
C        4.09383492       9.62951536       5.13678338       0.00000000     -15.41765000     -15.31598000       6.79163000
C        1.56828116       6.83197122       6.74100296       0.00000000      -3.67294000       1.29865000      -3.27409000
C        6.80138061       2.68716581       8.23291844       0.00000000      -5.46719000       1.85010000       4.09803000
C        8.35104140       0.71972436       6.76576084       0.00000000      -2.16484000       2.57534000      -1.48874000
C       11.59170599       1.29871530       5.15793911       0.00000000      -1.46663000       2.16656000       2.98399000
C        7.22980149      10.01540311       4.82785706       0.00000000       6.99905000      -0.25547000       9.84582000
C        5.14580262       8.70071364       7.50561570       0.00000000      -0.54025000      -8.04238000      -2.37892000
C        8.42333387       4.69392617       2.86807710       0.00000000       1.20303000       0.94708000      -3.48703000
C        5.30863387      11.29379394       7.17561677       0.00000000       2.82902000       0.97599000      -3.24964000
C        7.87162233       0.03133875       9.44235572       0.00000000       5.73262000      -6.34338000       0.20303000
C        6.34077587      13.03069750       3.70699122       0.00000000      -1.67429000       3.92633000       4.75287000
C        9.90225389       9.88472802       8.44426794       0.00000000      -0.03229000      -4.24604000       0.42198000
C        6.92827344       2.45151563       6.90218553       0.00000000       2.92421000      21.96901000      -8.40492000
C       12.60989656      12.94790336       3.26579654       0.00000000       0.66266000       5.17760000      -2.52030000
C        0.61350236       1.35172239       6.37060448       0.00000000       0.61963000      -2.16777000       2.40374000
C        8.74144569       3.11310675       6.55952364       0.00000000      -2.80895000      -0.05582000      -2.84735000
C        5.91224415       4.71272665       2.77293866       0.00000000      -1.19027000      -4.84458000      -1.54996000
C       13.47599309       1.00890810       5.51794676       0.00000000       3.02622000      -2.24536000       0.21430000
C        4.26636427      11.72729940       4.20555713       0.00000000       0.28868000      -1.70282000       0.62583000
C        1.87048808      10.78799601       2.96759355       0.00000000      -1.59830000      -1.14335000      -0.16429000
C       10.15950315       6.24876852      11.07310655       0.00000000      -3.69859000      25.73841000      33.12281000
C        0.39950666       1.86482161       3.55366412       0.00000000      -2.99255000      -0.68997000      -4.32420000
C       12.31759557      -0.01328641      11.76309928       0.00000000      -0.87879000       5.41920000       2.91092000
C        8.50655750       7.87069408       0.75291960       0.00000000      -3.26770000      -3.88946000      -2.51691000
C        8.97536408      12.56710020      13.87720385       0.00000000       0.02643000       0.23737000      -0.06837000
C        0.35075288       5.95127211      10.75340147       0.00000000       0.04800000       2.32104000      -1.66995000
C        0.95270064       9.18506490       1.67806375       0.00000000       0.91176000      -2.62150000      -2.93874000
C        6.01127570       3.63120742      10.54979661       0.00000000      -0.05213000       1.85612000       3.43422000
C        3.56307128       7.62041360       1.41628409       0.00000000       0.10793000      -2.52977000       3.86347000
C       13.68839552      11.51729378       1.60405332       0.00000000       1.28151000      -1.60195000       1.24077000
C        9.18620096       4.34325642       7.04514950       0.00000000      -7.07635000      -2.75866000       0.09625000
C        1.31359497      10.35939502      12.03719554       0.00000000      -5.65701000       1.20983000      -3.42194000
C        2.99304416      13.12669492      10.83899421       0.00000000      10.60803000     -15.28691000     -15.29172000
C        8.99049313      11.02889703       2.95838035       0.00000000       3.29228000       1.54108000       1.69596000
C        5.29674676       0.59585180       7.95418094       0.00000000      -0.91901000       3.52630000      -1.72810000
C        5.04516396      12.96229813      10.17520023       0.00000000       3.90063000      -0.66420000      -1.06682000
C       12.60610045       5.97627938       9.83878669       0.00000000       5.32145000      -2.02087000      -2.64921000
C        8.26812257      12.87300625       8.12823428       0.00000000       0.32789000      -2.33076000       2.48597000
C        0.15221874       5.64596180       8.57724286       0.00000000      -0.92842000      -2.84088000      -3.01548000
C       14.16550091       3.52932186      11.01670512       0.00000000      -2.44957000      -3.34494000      -4.92638000
C        7.58731534      13.54320098       7.09911255       0.00000000       1.54047000      -2.06011000      -1.82584000
C       13.90829321       8.92101310       6.91045663       0.00000000      -0.57966000      -2.16689000       0.33176000
C        4.82978282       7.82498828      10.04409566       0.00000000      -1.83624000       1.35216000       0.26260000
C        2.45504851       0.02648969      11.42610385       0.00000000      -7.33907000      16.22517000      17.58933000
C        9.78935405       3.76130062       1.48555629       0.00000000      -0.82661000      -1.27935000      -2.16704000
C        5.17302660       7.14305884       7.22236166       0.00000000      -1.67601000       2.55373000       4.29748000
C        4.74939936       5.28484579       5.68512830       0.00000000      -1.66386000       0.39484000      -9.78444000
C        6.29900473      10.37219653       4.09147966       0.00000000     -10.16511000       1.88392000       0.43319000
C        5.81932242       5.79744625       0.62296494       0.00000000      -1.41947000       1.08455000       3.60787000
C        4.93256892      10.38150671       5.03489782       0.00000000      12.36216000      13.28082000      -5.15546000
C        6.70136540      13.11230016       8.57375154       0.00000000       1.27626000      -4.12464000      -0.33160000
C        2.85344681       3.43874153       2.93894257       0.00000000       0.96350000       1.78165000       0.60617000
C        0.91781515      10.24639820       7.12817917       0.00000000      -2.14449000       0.41246000      -2.54335000
C        7.85035576      11.81049532       2.82137378       0.00000000      -2.54473000       1.86796000      -5.43510000
C        3.74467529      10.34270042      12.24440256       0.00000000      -1.33281000      -2.35981000      -2.88027000
C        2.15309097       4.50370470      12.55150010       0.00000000       4.10219000      -1.03821000      -3.44654000
C        1.87251083       2.38922606       3.58074955       0.00000000      -1.75408000       0.67749000      -0.33744000
C        4.74154389       5.82037535       7.87863267       0.00000000       3.94078000       7.59371000      -1.88401000
C        1.74212668       3.74000635       3.84862517       0.00000000       2.60728000       4.29092000      -1.29592000
C       10.30159430       5.62871302      10.25640111       0.00000000      -0.17654000     -19.40667000     -26.42891000
C        6.66261453      11.09350029       6.12006077       0.00000000       2.65075000      -0.48751000       4.65387000
C        9.31975777       4.71315614      12.92500197       0.00000000       4.93679000      -3.33328000      -6.38500000
C        8.44774540      10.16270352       4.02615597       0.00000000       1.20914000      -5.08618000       3.39539000
C       12.10490219       8.74202758       2.51768444       0.00000000       1.74591000       0.78240000      -0.97651000
C        5.94129692      11.45009975      11.39419708       0.00000000       3.42211000      -0.98135000       2.51255000
C        5.65442686       8.31805398      10.94970505       0.00000000       2.83562000      -0.47330000       0.87795000
C        6.90667436      12.96919764       2.53188524       0.00000000       2.77250000       0.57977000       2.38770000
C        3.92939656       4.51491294       2.24971184       0.00000000      -0.54111000      -2.60646000       2.50816000
C       11.94679531       9.38587116      13.16990692       0.00000000     -32.51752000      13.28176000     -23.46576000
C       13.99700320       2.92037762       2.28681403       0.00000000      -1.27831000       0.06814000       2.81163000
C        3.47366857       9.63135800      10.16939522       0.00000000       0.20940000      -1.96174000       3.33647000
C        4.56804472       9.52549622       1.14990475       0.00000000       2.78368000       0.09335000      -0.56502000
C        3.45715408       0.81137148       9.54130414       0.00000000      -0.40720000       2.13373000       0.82493000
C        7.99175418      10.89370539      10.72829722       0.00000000      -2.24647000      -0.79174000       4.55117000
C        2.70681141      13.81390291       6.82645715       0.00000000       4.27246000     -23.03355000      -0.58029000
C        6.59464464       5.18354212      11.29059357       0.00000000       0.04153000      -3.36594000      -0.75890000
C        9.08021449       9.43272688       3.09008067       0.00000000      -0.58084000       1.51646000       0.43605000
C        5.00894845       1.97464577       5.17967673       0.00000000      -2.47620000       2.17930000       1.76086000
C        0.18336353       7.29332410      10.55190248       0.00000000       2.77837000       1.61577000      -1.18407000
C        9.71851629       1.82993613       5.32215580       0.00000000       5.31992000       4.81306000       0.22573000
C       11.79349592       4.83600347       9.23667269       0.00000000       0.75303000      -5.13751000      -0.97388000
C        9.55201362       7.76607919      11.76099340       0.00000000      -1.20157000      -5.18408000      -1.96103000
C       13.04039561      11.13859649       0.55892971       0.00000000       0.08865000       1.33566000      -0.75513000
C        8.70287493      10.02960391       7.74863645       0.00000000       2.25685000       4.73285000       0.88779000
C       13.85259836       9.28542647       3.15349244       0.00000000       4.39865000      -0.54640000      -1.09204000
C        3.51326457       3.25928495       9.95212988       0.00000000       1.49901000       0.15554000       0.02715000
C        1.45988401       5.07838691      10.17510325       0.00000000      -3.25167000       0.52989000       3.91528000
C        0.84162958       8.58670544      10.08190442       0.00000000      -3.75120000      -2.67187000       2.98113000
C        5.73932687       6.52122996      10.87509888       0.00000000       2.83334000      -4.03371000       1.03522000
C        7.12407825      12.20109357      12.15509683       0.00000000      -0.41677000      -4.35922000      -0.07406000
C        4.41295811       3.95984862       7.17082314       0.00000000      -3.11935000      -7.37768000       0.74119000
C        4.62833925       3.71462501      10.93410494       0.00000000       2.81208000      -2.07097000      -4.67083000
C       12.77559568       4.04168680       9.92606967       0.00000000       2.22442000       0.85416000       1.76975000
C        3.32340331       8.80822410       6.03286092       0.00000000       0.87399000       0.56658000      -3.75990000
C        5.71250468       4.30934075       8.53696800       0.00000000       3.96971000       2.48849000       4.84616000
C        4.48148218       9.11590353       2.54720825       0.00000000       1.02205000       5.04610000      -0.32923000
C       12.98460378       1.84891671       4.59871846       0.00000000      -0.30913000       2.51789000      -3.82554000
C        4.96202346       7.12901043       1.53386673       0.00000000       1.89906000      -8.51967000       3.92424000
C        9.24362762      12.03100260       4.39148373       0.00000000       4.46154000       1.36638000       1.90702000
C       13.48440274       8.63569475       0.67213435       0.00000000       6.47290000      -2.37159000       8.48355000
C        4.89636727       3.47854534       5.53580514       0.00000000      -1.98910000      -3.08094000      -0.16003000
C        6.02245623      -0.00389310       9.58838153       0.00000000      -0.89475000       3.33765000      -3.18006000
C        8.89270848       1.80555231       1.52243681       0.00000000       4.02328000       3.29169000      -5.44282000
C        3.38030350       3.31829102       8.12792948       0.00000000       2.94450000       0.34352000       1.35576000
C       11.51690586       0.90477812       8.32248740       0.00000000      -0.13378000      -0.75110000       1.78247000
C        2.37057798       4.94689441      11.24250480       0.00000000       1.65023000       0.11723000      -0.31218000
C        3.50021368       8.48360069      11.39429406       0.00000000       1.19615000      -0.18320000      -2.11142000
C        3.69910804       1.25756761       6.47057812       0.00000000       8.96203000       2.78969000      -5.35686000
C        2.25220564       7.70032602       4.40352324       0.00000000      -1.71636000       1.07599000      -5.56378000
C        0.65016121       5.34515417       3.49076495       0.00000000      -1.64699000      -4.41650000       0.00892000
C        6.96906091      10.86630131       2.49391022       0.00000000      -3.91155000      -1.92472000      -0.84082000
C        6.46716993       8.20602697       4.77191282       0.00000000      -2.03452000      -2.24813000       0.43421000
C        7.12108569       8.04383303       2.32904237       0.00000000      -1.17876000       2.98017000       0.09942000
C       11.18700391       3.53007000       0.00182879       0.00000000      -0.00606000       1.08786000       2.52172000
C        3.95807525      12.62499791       5.20500265       0.00000000       2.90861000      -0.43604000      -0.30495000
C       -0.42190929       4.29042943       2.88823532       0.00000000       3.02813000      -1.61540000       0.39538000
C       10.26709674      13.08060120       6.38412641       0.00000000       0.38086000       1.33490000       6.59442000
C        6.16974279       3.31527075       3.01346561       0.00000000      -1.38806000       4.98758000      -0.50141000
C        2.42746432       7.00901712      13.43179742       0.00000000       2.46962000       2.21778000      -2.55839000
C        2.40176433       5.29828460       5.54497678       0.00000000      -0.40543000      -1.89329000      -0.99921000
C       13.88429732       7.44702527       6.99721314       0.00000000       4.85343000       4.18524000      -0.23652000
C       10.29089867       8.74637788      11.88420095       0.00000000       2.31228000       0.91401000      -1.86650000
C       11.19469313       4.00037286       7.75244642       0.00000000      -0.31787000       2.80696000      -1.79725000
C        2.12010354       9.26435386       0.90312945       0.00000000      -2.02121000       1.22798000       1.00347000
C        1.25597435       4.82723361      13.38399960       0.00000000      -1.68329000       1.14688000       3.22780000
C       13.39440429      10.27110067       6.72804906       0.00000000       2.51277000      -2.27316000       0.45385000
C        1.66082882       7.87357580       3.31525690       0.00000000      -1.60130000       0.40737000      -3.21175000
C       12.34030300       3.26054571       5.25320225       0.00000000       2.09752000       1.03899000      -5.14349000
C        4.49957608       6.45094638       4.76300442       0.00000000       1.71540000      -4.27332000       2.19001000
C        6.14832383       8.88614148       0.40982822       0.00000000      -1.45822000      -2.09511000      -2.15185000
C       12.00750547       5.41991274      13.34540113       0.00000000      -4.93694000      -1.86244000      -2.91940000
C        6.02910636       5.53871457       9.50317672       0.00000000      -0.67143000      -1.15498000      -0.48452000
C       12.99179423       9.77687120       2.20952011       0.00000000      -2.64639000       0.79100000      -0.06049000
C       13.58680091      11.55989619       4.73827424       0.00000000       7.80056000      -4.17362000       9.19042000
C        7.15989198       3.95958538      11.66430326       0.00000000       0.10933000       2.12467000       0.13956000
C       11.14229563       0.74042289       7.10078894       0.00000000      -3.00480000      -2.97616000      -3.27631000
C       10.72210429       5.66613386      12.41370383       0.00000000       0.69772000      -2.18012000       1.75664000
C        7.90963891       3.69568599       4.88452172       0.00000000       2.03523000      -4.35094000      -2.37489000
C        6.64938354       7.41141936      11.76120122       0.00000000      -3.17976000       6.06481000       0.57881000
C        8.28613335       6.42053588       0.08061899       0.00000000       0.23928000       6.40868000       3.42493000
C       12.68030483       4.33925248       3.98161394       0.00000000      -0.67000000      -1.18207000       4.08369000
C        4.78000382      10.68400458       2.86314492       0.00000000      -2.52379000      -0.74918000      -0.31853000
C        5.21064141       7.52229645       4.99332064       0.00000000       5.29355000       2.59366000      -0.47914000
C        3.22311101       0.78506190      12.89359395       0.00000000      -3.13661000      -2.01481000      -4.85147000
C        2.95218741       8.29728617       0.34454609       0.00000000      -3.75012000      -3.25235000      -0.52255000
C        8.45457564       2.08006421       3.78603080       0.00000000      -0.10844000      -3.49380000       1.69978000
C        4.73148556       7.85423500       0.55606184       0.00000000       2.52459000       7.68372000      -8.10400000
C        3.84000770      12.57670132       9.63448911       0.00000000      -4.54999000       2.97074000       2.16297000
C        6.76750650       8.29170283      13.07280115       0.00000000       0.38185000      -0.63341000       0.07708000
C       12.26860627       1.36049225      12.70249965       0.00000000       2.16818000      -1.36096000       2.79913000
C        9.04417908      12.85129634       5.83051680       0.00000000       1.34501000      -1.38441000      -4.34724000
C       10.46410689      11.89759819       3.80304405       0.00000000      -2.54235000       0.24408000      -2.33152000
C       13.64630573      11.10630179      11.95980463       0.00000000       5.47879000      -3.48515000      -0.19087000
200
Lattice="13.854441 0.0 0.0 0.0 13.854441 0.0 0.0 0.0 13.854441" Properties=species:S:1:pos:R:3:initial_magmoms:R:1:forces:R:3 energy=-31018.157518 pbc="T T T"
C       11.28070150       6.57699409       5.42278061       0.00000000      10.20109000       1.70976000       1.51651000
C        0.77922918      11.91400185      13.92130253       0.00000000       4.32720000       5.64462000       3.23780000
C        9.17496501      12.81440197       6.93204185       0.00000000      -2.27649000      -2.97275000      -3.46557000
C        8.59730409       2.13384715      -0.13321045       0.00000000       3.33119000       8.85990000      15.24951000
C        7.11464338       7.53774415       5.59245595       0.00000000     -10.26359000      24.24691000       1.41648000
C        4.60922012       8.29741086       3.29939356       0.00000000       2.00248000      -4.75576000       0.17859000
C        2.05719053       6.23248956       0.59906603       0.00000000       3.03261000       1.15717000       4.66372000
C       12.59159485      13.83030656       4.62358718       0.00000000      -0.85826000      -3.91920000       2.79213000
C       11.78239851       3.60705913       4.52095348       0.00000000       4.19486000       4.49390000     -13.71908000
C       13.31230287       5.62519399       2.58130403       0.00000000      -3.00734000       2.02982000       2.17945000
C       11.66459420       9.80492644       8.81661989       0.00000000      -0.88035000       0.45120000       0.00608000
C       13.23029843      13.23280609       9.86063515       0.00000000       3.25630000       0.54290000      -3.41534000
C        8.13826490      13.42819527      12.89960678       0.00000000      -4.13998000       4.79469000       2.65261000
C       11.99449615       2.73148617       7.06196879       0.00000000      -1.60921000       0.60794000      -0.47216000
C       13.48039880       6.81415441       6.67174461       0.00000000       0.06611000      -0.58681000       3.60850000
C       12.25770282       3.65046510      12.95120072       0.00000000      -1.71431000       0.74490000      -2.63016000
C        2.21594857       4.51470513       6.85433229       0.00000000       3.80356000       1.82068000       0.16260000
C       12.30180151       9.84783364       7.39259117       0.00000000      -2.35091000      -1.69074000       6.12666000
C        8.26981281       1.67744030      12.72250546       0.00000000      -3.37564000      -6.23543000     -12.51537000
C        5.91731488       2.67820199       1.39280081       0.00000000       0.36628000       0.29612000      -1.81277000
C        6.46995467       4.62599785       1.83018551       0.00000000      -4.54877000      -2.55446000      -7.53021000
C        4.93805528      12.88339708       2.64385683       0.00000000       1.70867000      -0.88642000      -0.52781000
C        6.00770125       8.48637158       8.14695163       0.00000000       2.09992000       9.06586000      -9.84968000
C       13.80970501       9.06045805       5.51787749       0.00000000       2.68787000      -0.60031000       1.06250000
C        8.98862278       2.78507515       2.64183408       0.00000000      -1.48903000       4.41417000      -3.56758000
C       11.74420182      13.05539997       0.61319756       0.00000000       1.98493000      -3.38451000      -2.82026000
C       11.52930558       5.55898362       3.03935956       0.00000000       2.51758000       0.97026000      -2.65110000
C        3.62258996       4.17711396       4.88101655       0.00000000       0.81364000      -1.87412000       4.41117000
C        3.63489270       8.14714559       7.52894658       0.00000000      -2.13222000       1.72579000      -3.71390000
C       12.25659447       3.38929503       8.69813671       0.00000000      -5.93104000      -4.24259000     -27.13576000
C        5.67206356       2.42688243       7.00361389       0.00000000      -7.20396000       4.61893000       2.81474000
C        2.74903975       1.97981347       7.53833989       0.00000000       0.83053000      -0.55564000       2.99125000
C        2.82830100      10.19829558      12.20339341       0.00000000       3.33220000      -5.43838000       2.72210000
C        8.72562392       7.97026595       7.13953981       0.00000000       5.86132000       0.27883000       4.05908000
C        9.29811713       4.44122117       3.28512349       0.00000000      -1.31910000      -2.31435000      -1.67471000
C        2.41557721       2.54289952       2.87348034       0.00000000      -1.50878000       3.31396000      -1.07918000
C       11.70539553       4.52422313       7.35536429       0.00000000       3.25681000      -0.42983000       1.91268000
C        4.45899642       0.81971186       9.73849440       0.00000000      -3.06667000       1.95633000       1.81078000
C       12.91589960       6.23728319      13.58919773       0.00000000      -4.23087000      -6.84801000       0.19575000
C        2.13527416       0.28524909       7.97964540       0.00000000       5.35420000      15.81207000      -4.76563000
C        2.24962871       2.98261177       8.55654432       0.00000000      -1.81295000       2.62923000       0.74307000
C       11.65709895       0.09717505       7.19616291       0.00000000       1.51592000       3.37155000       0.55317000
C        4.02230444       1.70627139       8.13402544       0.00000000       3.74115000       0.43485000       4.35170000