200
Lattice="13.854441 0.0 0.0 0.0 13.854441 0.0 0.0 0.0 13.854441" Properties=species:S:1:pos:R:3:initial_magmoms:R:1:forces:R:3 energy=-30873.08408734 pbc="T T T"
C       11.04325023      11.40268985       5.05325496       0.00000000       0.81612000      -1.71688000      -8.94315000
C        4.02647462       1.28989002       1.63636188       0.00000000       0.08605000      -5.52262000       0.61070000
C        3.33752098      10.16755258       1.14386421       0.00000000      -2.66133000      -0.90738000       0.92768000
C        1.42865610      13.68020755      10.06811926       0.00000000      -0.13243000      -1.53286000       3.76348000
C        5.12035201       3.25620927      13.24397277       0.00000000       1.55513000       1.40021000       2.63932000
C        8.63997577      13.84021249       4.43637212       0.00000000      -6.37587000      -1.36378000       0.82035000
C       13.00920926      11.29846289       8.26108452       0.00000000       1.00142000       0.00902000      -2.99687000
C        3.42667431      12.66556371       9.27585305       0.00000000      -4.11552000       1.23713000      -3.35002000
C        8.12460442       3.87285658       0.52390569       0.00000000       3.03941000       2.37314000      -1.48573000
C        0.68342572      13.02378414      11.54753803       0.00000000       3.98627000      -0.14840000       0.19143000
C        4.62950302       7.13092235      11.64777491       0.00000000       1.56145000      -1.10652000      -0.38820000
C        5.38042758       4.93848477      11.86276813       0.00000000      -0.45395000       1.70893000      -0.00326000
C        8.69550437       6.59566987       2.25251044       0.00000000       7.13094000       3.88470000       4.31485000
C       11.56201592       3.23044001       2.50841582       0.00000000      -2.48509000       1.62681000       3.35104000
C        9.82464131       4.67218856       0.51760192       0.00000000      -5.90970000      -3.86047000       2.65412000
C       12.17644652       6.73449137       3.54378590       0.00000000      -1.01714000       1.44243000       0.56598000
C        0.20733171       1.90904499       3.03348527       0.00000000       3.37462000       2.54116000      -0.13550000
C        4.99474765       8.35483752       9.59604303       0.00000000      -1.19870000       0.83750000       1.62134000
C        2.23675794      12.90114462       7.81268553       0.00000000       2.49547000      -0.63173000       3.48346000
C        2.05933796       8.07375862       2.75115948       0.00000000       2.22200000      -1.49287000       0.24636000
C       10.51270827       5.32855655      13.58626059       0.00000000       4.47930000       4.99839000      -1.25144000
C       12.18693434       9.57857258       1.72838308       0.00000000      -2.13979000      -3.92076000       5.42977000
C       11.15832522       8.86308769       3.36725261       0.00000000      -0.84385000      -3.20013000      -0.54192000
C        5.04553803       5.75388789       2.26617091       0.00000000       1.41712000      -1.50438000       1.31167000
C        6.04176932       3.80613359       3.28339168       0.00000000      -1.16042000       2.29214000      -1.28032000
C       13.81377822      11.11013947      10.06745424       0.00000000      -3.57729000      -0.17997000       0.10338000
C       10.60188930       7.14984751       0.40164024       0.00000000       0.93631000      -0.57717000      -0.84015000
C        3.76562321       4.63584836       5.52847614       0.00000000      -5.90653000     -10.26841000      -1.18632000
C        8.69471467       8.55490950       7.22854074       0.00000000      -0.80800000      -0.91014000      -0.70291000
C        9.14423586       8.81885046       9.12475651       0.00000000       2.58145000      -7.62674000      -4.83762000
C        1.40179234       2.99664632       2.47272678       0.00000000      -3.54937000      -3.63001000      -0.01718000
C       10.75823667       7.83521285      11.98155610       0.00000000      -0.16872000      -1.22443000       0.49077000
C        1.21140461       7.81170187       9.46714131       0.00000000      -0.34534000      -0.62756000       0.12877000
C        7.65008981      11.47901396       2.35237325       0.00000000      -0.21761000      -2.38193000       0.55618000
C        7.14190892       1.36693457       5.41915074       0.00000000      -0.40874000      -0.91028000      -0.32651000
C        6.98075406       9.57588482       1.61754755       0.00000000      -2.31228000      -0.92888000       2.86957000
C        0.99929312       8.31646072       0.81131606       0.00000000       1.85117000      -1.80663000       0.65955000
C        2.78666841       0.72922850       5.37855723       0.00000000       4.01293000      -0.30222000       1.00674000
C        2.18423575       5.93021336      11.63397589       0.00000000      -0.01441000      -3.33341000       3.91145000
C        4.63939509      11.60331601       0.24691385       0.00000000       2.82000000       2.21137000       2.78165000
C       12.47995576       6.18095104      13.46658592       0.00000000      -4.02937000       0.02296000       0.42548000
C       12.20998813       0.67379688       6.82275801       0.00000000       1.38047000       1.97123000       3.98912000
C        5.96295141       1.66691092       5.95793610       0.00000000       1.79539000      -0.75791000       1.48741000
C       11.12795628       8.86311540       5.13559190       0.00000000       2.43506000       0.88235000      -3.92419000
C        0.55492578       3.89041016       6.34523700       0.00000000       2.43655000       0.39192000      -2.29297000
C        1.87834355       3.57862982       9.33020402       0.00000000      -6.59098000      -3.84478000       2.18474000
C        5.43619171      10.59147076       6.19995933       0.00000000      -4.97916000      -2.37930000      -1.76595000
C        5.29849242       9.08664295      13.46612873       0.00000000       1.00460000      -1.84397000       3.00209000
C       13.35217595       5.96954612       8.04692257       0.00000000       2.98920000      -1.82933000      -1.19321000
C        8.12186124      10.12303826       8.86466709       0.00000000       3.37499000       2.44848000       0.09853000
C       10.76794863       4.28189510       9.44645663       0.00000000      -1.27216000       5.35770000       1.51032000
C        9.25027775      11.54863253      11.68834071       0.00000000       2.41752000      -1.85924000       1.04698000
C        4.06406172       6.40970171      12.69813550       0.00000000      -2.21644000       3.06071000      -0.39373000
C        6.95369634       0.36608975       0.13843357       0.00000000      -1.65736000      -1.39930000      10.68808000
C        6.02550421       4.62738329       0.28987647       0.00000000      -1.46964000      -0.51239000      -1.34547000
C        3.24702377       8.71818409       5.13988678       0.00000000      -0.06397000      -7.78363000       3.20534000
C       12.55630759      10.38188078      11.50097325       0.00000000      -0.23236000      -1.32548000       5.46921000
C        3.19716164       0.69227871      13.69036286       0.00000000      -0.02927000       0.17421000      -1.50761000
C        6.97683325      13.75730751       3.78615549       0.00000000       2.42440000      -2.74971000       1.98790000
C        1.12545166       8.67077419       6.92041797       0.00000000       1.29502000       2.96597000      -3.56969000
C        4.36813899      11.43490142       6.89705938       0.00000000       3.14993000      -1.22125000      -0.81825000
C        1.84629823       9.91418256       9.98425832       0.00000000      -1.07867000      -0.53854000       3.51209000
C        6.45802600       6.79481361       6.06752473       0.00000000       4.48073000      -0.66018000       0.32268000
C        6.90911275      10.14309949       2.94556499       0.00000000       3.37065000      -0.63712000      -4.52673000
C        3.15550134       5.77793920       4.42648005       0.00000000      -1.18914000      -0.22354000      -4.74489000
C        4.27735084      13.67710416       2.43031833       0.00000000       1.09004000       0.54168000      -3.26698000
C        1.36787667       1.54899578       3.89265458       0.00000000       3.43603000       2.69481000      -3.15423000
C        7.67076064      12.42690711       5.16007270       0.00000000       0.35730000       2.03544000      -2.40983000
C       10.42578550      10.15182779       6.75670004       0.00000000       2.45508000      -8.96705000       7.11580000
C       10.58989136       6.12236060       9.42523163       0.00000000      -0.60229000      -1.84899000      -0.32431000
C        9.99966446       9.10717523      10.29933602       0.00000000       0.84701000       2.05536000      -0.59878000
C       10.88317602       3.74389945       6.55912186       0.00000000      -3.87149000      -2.05158000       0.78052000
C        4.64468749       6.20429577       7.54134631       0.00000000       3.57231000       2.69398000      -1.55615000
C        8.11063914      12.53017811       7.41592205       0.00000000       0.90531000       2.67025000       1.87855000
C        1.76551298       9.85790582       5.89053424       0.00000000      -1.74803000       0.98429000       3.55776000
C        2.31168275       2.43842318      12.78616662       0.00000000      -1.68796000      -1.47618000       4.23182000
C        6.52174258       6.28864161      11.43152094       0.00000000      -3.55656000       0.17469000      -2.33419000
C       10.57808737       4.11161016       3.93092054       0.00000000      -0.11987000      -7.06349000      -2.75889000
C        4.75949924       6.68889641       4.66305848       0.00000000       0.66666000       1.50253000      -3.37814000
C        0.44841284       3.54384132      10.52990163       0.00000000       0.96721000      -0.47966000      -4.90464000
C        1.07416252      11.60276183       1.25983974       0.00000000      -0.14477000      -3.31233000      -2.46302000
C       11.88130537      11.42980299       7.05588669       0.00000000       3.33485000      -0.59573000       3.01604000
C        9.52961099      10.94445421       8.54203873       0.00000000      -2.25386000       0.42483000      -0.64586000
C        9.26384125       1.49821925      10.16476784       0.00000000      -3.10109000      -1.74526000       3.33454000
C        6.14941833       7.98601844       0.93216835       0.00000000      -0.23451000       4.33233000      -0.93882000
C        6.31370429      12.47546692       3.68178999       0.00000000       1.44967000       2.52736000      -0.80968000
C        3.25848140       0.52642719      11.58346259       0.00000000      -0.44499000      -0.06279000      -1.46514000
C        7.77489062       8.38350236       8.74158424       0.00000000       0.54562000       0.50872000      -3.25468000
C        6.81595548       6.64233163       9.86010868       0.00000000      -0.03679000      -2.06905000       3.55491000
C        8.19431996       5.73284300       5.84196057       0.00000000      -3.28724000       2.72894000       0.04302000
C        5.40237301       8.07287194       3.31783382       0.00000000      -2.78314000      -1.42935000       0.61725000
C        2.11648753       5.98255544       9.22773657       0.00000000      -2.96673000      -2.10202000       0.33567000
C        6.02730528       9.18929050       9.93123738       0.00000000      -2.54835000      -2.73311000      -1.56682000
C        0.46259978      10.80232150       3.90610724       0.00000000       1.78667000       0.45637000       0.28970000
C        9.01083145       2.18513629      12.87051245       0.00000000      -3.84761000       0.39472000      -0.21889000
C       12.85140718       7.86041408      10.31907860       0.00000000       1.57867000      -0.72273000       0.14089000
C        2.36933108      12.94448132      12.60346810       0.00000000      -0.33011000       1.94285000      -0.14208000
C        9.50596146      10.90941633       1.54033675       0.00000000       1.11113000       4.48093000       3.92234000
C        5.54115295      12.67128559       0.82582166       0.00000000      -4.34421000      -3.51547000       0.11776000
C        7.14569118       1.90657890      13.04926245       0.00000000       1.20533000      -1.20481000       1.76250000
C        0.84180969      12.72922487       4.78184646       0.00000000      -1.56845000      -3.12252000       1.78744000
C        0.09276934      12.15220125      13.21417186       0.00000000       0.79863000       0.83221000      -1.86239000
C        2.73816401       7.97626492      12.91774224       0.00000000       1.45678000       1.59393000      -3.75310000
C        7.69629437       7.13881938       3.28758958       0.00000000       0.61541000      -1.03447000      -0.93836000
C        6.78018332      13.15013664       7.78402069       0.00000000       4.48012000       5.57325000       4.68417000
C        2.88581079       9.00818525      11.61650544       0.00000000      -1.54631000      -3.81401000       1.51630000
C        0.06821927       6.22032536       5.95880893       0.00000000      -1.09585000      -0.66932000       2.96688000
C        0.61923809      10.40620918      11.08883134       0.00000000       2.22011000      -0.30512000      -4.02822000
C        8.16511480       0.31599209       7.99455278       0.00000000      -3.19012000      -3.67312000      -0.26497000
C       13.14463642       9.78131847       5.55770901       0.00000000      -1.02845000       0.65307000      -0.70688000
C       13.10048232       1.35795689       8.46869331       0.00000000       0.94165000       2.43241000      -3.57025000
C        3.99039766       5.85160326       5.47631417       0.00000000       1.73689000       8.90691000       3.20016000
C        7.52494265      10.35629163       6.65492532       0.00000000      -2.19476000      -1.14250000       0.38560000
C       11.60482614       0.15413066       1.30305174       0.00000000      -0.58582000      -1.70375000       1.65172000
C        1.07561724       2.65391515       0.37352958       0.00000000      -0.08817000       4.60331000      -0.06003000
C        4.25120751       6.32693528       9.74011537       0.00000000      -1.21753000       2.40439000      -0.52460000
C        4.13089555       0.73154219       7.05131473       0.00000000      -0.12111000      -0.55983000      -4.56715000
C        3.95897579       9.49432373       7.31823439       0.00000000       2.15240000       1.73534000      -1.00336000
C        3.92474146       4.35629345      11.80948395       0.00000000       2.25090000      -1.45814000      -0.01008000
C        5.71747842       1.14617790      11.85433077       0.00000000      -1.07418000       1.11225000       0.70505000
C        5.64943926       1.75955557      13.55368879       0.00000000       0.11525000       4.81209000      -4.41011000
C       10.75168352       7.56500969       8.22489672       0.00000000      -0.84576000      -1.69691000       2.52710000
C        9.08179389       0.37005212      11.50431217       0.00000000       0.74858000      -0.01427000      -1.53665000
C        7.33782457      11.63326931      10.46679465       0.00000000       2.43411000       1.74153000      -0.32643000
C        8.42102018       8.03414877      11.84287315       0.00000000       0.84299000      -1.00892000      -0.38888000
C       12.32822192      10.87457241      10.30174669       0.00000000       1.31249000       0.68435000      -0.77467000
C       10.45052954      12.11690014       2.44798274       0.00000000      -0.21060000      -1.53414000      -2.50773000
C        6.92238530       0.28591410      11.44252137       0.00000000      -3.23232000       2.34519000      -4.67030000
C       11.61899924      13.49677475      11.90679754       0.00000000      -0.88384000      -0.98648000       1.56500000
C        2.82939550       4.27647801       9.78810715       0.00000000       4.37461000       5.42154000       0.38216000
C        7.12159831       0.33310232      12.76930576       0.00000000       3.73410000      -1.14050000      -4.63072000
C        9.58259037       8.24560911      12.79536597       0.00000000       2.27799000       0.64693000      -1.25067000
C        1.45107259       2.66405661       6.10757792       0.00000000      -0.39065000       1.30282000       2.46359000
C        0.54707031       0.91853558       4.58519652       0.00000000      -4.16818000      -3.23865000       1.89440000
C        1.71318476       4.11091744       5.54971499       0.00000000       0.07888000      -3.43474000       2.65897000
C        4.68336909       9.24206207       5.34738474       0.00000000       0.14899000       3.26514000       1.75341000
C       11.74181886       8.53033172      10.47990095       0.00000000      -0.65425000      -1.40628000      -1.61384000
C        1.33444590      11.36384200       6.07126543       0.00000000      -1.87908000      -0.07131000       0.81706000
C        3.36294388       9.90951362       4.81691205       0.00000000      -1.42890000       6.31457000      -2.06661000
C       12.07266291       2.26261032      11.93719418       0.00000000       0.02691000      -1.19305000      -0.17351000
C        8.54970023       9.48455635      10.07497720       0.00000000      -2.28089000       4.71842000       7.59111000
C       10.80485686      11.74053039      12.79531055       0.00000000      -1.07017000      -0.36698000      -2.62184000
C       11.25108070       9.48290767       9.27183526       0.00000000       2.77077000       0.30686000       2.73620000
C        8.14412533       9.33732520       5.82720559       0.00000000      -2.10807000      -1.09792000       0.74688000
C        6.93015764       1.82647252       7.74499273       0.00000000       3.49712000      -0.05120000       1.12470000
C       10.29206244       2.38973867       7.60781991       0.00000000       2.70257000      -1.72647000       0.49462000
C        2.34799524       8.01056851      10.22697428       0.00000000      -5.37517000       5.24662000       3.56383000
C       11.99710079      13.10265747       3.72033304       0.00000000      -1.13757000      -2.08547000      -0.67257000
C       10.44809115       9.91667636      12.21404748       0.00000000      -1.33078000       3.14290000       0.94996000
C        8.04111756      13.43386173       1.55783491       0.00000000      -0.70965000      -0.27887000      -3.35326000
C        0.00310339       2.52094023       8.60313681       0.00000000      -2.62054000      -3.97551000       1.33007000
C        5.09174259       4.00227092      10.78770507       0.00000000       2.66988000      -0.41668000      -2.00631000
C        2.50984282       3.65656105       8.17661399       0.00000000       1.45352000      -0.93267000      -0.15163000
C       12.27590756      10.56719778       1.01025198       0.00000000       0.61704000       2.80726000      -3.49055000
C        7.71835064       8.89374756       4.55089293       0.00000000       0.26169000       0.73647000       0.07812000
C        8.36551929      13.60993783      13.43473456       0.00000000       1.34162000      -1.80736000       0.20842000
C       13.03677960      11.88458887       5.03636639       0.00000000       2.98471000       0.13984000      -3.40694000
C        6.53917146       3.54622428      11.10585845       0.00000000       1.44819000       0.23566000       0.22193000
C        6.20371388       4.59262250       9.97156766       0.00000000      -0.52389000       0.04004000      -0.76915000
C        1.71637128       1.51516323       7.20210646       0.00000000       0.62304000       3.09959000      -3.64019000
C        1.90560909       6.61577267       2.77349283       0.00000000       1.77547000      -0.80285000      -1.91106000
C        1.83193117       9.39044313       3.46858399       0.00000000      -1.05256000      -3.61742000      -0.28047000
C        4.25341037       0.45153009       5.41324875       0.00000000      -4.39467000       1.94316000       4.23181000
C        2.01684639       4.86906016      12.72429268       0.00000000       1.21910000       2.68516000      -3.94925000
C        2.24392068       5.97425663       1.35115436       0.00000000       0.38606000      -0.00616000       5.55964000
C        9.99639481       8.11304981       2.41614524       0.00000000       2.15862000      -0.19564000      -0.04376000
C        6.15156577      12.32550645       7.15534773       0.00000000      -6.16387000      -4.52113000      -3.07773000
C        5.48831211       5.79373326       6.05396123       0.00000000      -0.19689000       0.45152000       2.58100000
C        8.97148483       6.82370012      10.74044757       0.00000000      -0.78275000       0.08018000       1.88330000
C       10.48524877       5.32826561      11.30458655       0.00000000      -0.71277000       1.18886000      -1.42591000
C        1.40700161      10.12278888       0.69189078       0.00000000       2.56491000       0.69780000       3.94013000
C        9.40377110       6.54237184      12.11690014       0.00000000       1.70374000      -1.56179000      -4.49051000
C        3.54467258       8.43940503       2.47322554       0.00000000      -0.58561000       0.09591000      -0.00509000
C        8.04402699       2.67120550       8.61331982       0.00000000      -3.01832000      -1.21031000      -0.84877000
C        4.78086279      11.95373638       2.67092841       0.00000000       1.42919000       5.18856000      -0.21719000
C        3.48990598       7.62731311       9.83241365       0.00000000      11.86545000      -2.03439000      -2.38794000
C        7.24077421       5.66476227      13.52850142       0.00000000       9.14615000      -4.18216000      -0.48574000
C        5.98660094       0.42289296       9.62053768       0.00000000       1.56780000      -0.29044000       0.56616000
C       12.62830912       9.90150575       8.07421582       0.00000000      -1.79141000       0.07372000      -0.46947000
C        8.63526526      12.79661287       9.06533482       0.00000000      -1.37692000      -1.48176000      -2.45616000
C        9.52408307       3.08230832       6.86820058       0.00000000       1.66973000       2.99070000      -1.43304000
C        0.01161002      11.84658614       7.31827595       0.00000000       1.69414000      -0.14380000      -2.16916000
C        8.11785731       4.43886592       9.90326526       0.00000000      -0.25775000      -1.12423000      -1.55994000
C        1.94071624      11.34276939       3.20576525       0.00000000      -4.04840000       0.05376000      -0.59240000
C        8.58606814      12.65558851      11.87321437       0.00000000       0.59971000       3.47111000       0.75889000
C        1.33128709       6.64296893       0.77745581       0.00000000      -2.51054000       5.49613000      -2.48733000
C        7.83222030       1.70081274      10.44522329       0.00000000       1.97993000      -1.15984000      -1.78469000
C        9.89607481       2.76437661       3.99988795       0.00000000       3.36575000       5.67661000      -0.72649000
C       12.72292109       9.80512040      12.76447056       0.00000000      -0.16711000       1.48312000      -1.21987000
C       10.96807603      12.01508385       6.13268216       0.00000000       0.78447000       4.54737000       7.87717000
C        5.97374402      10.06559775       7.35332769       0.00000000       3.04278000       0.30332000      -1.10190000
C        2.09922490      10.08378863       2.33828328       0.00000000       2.09504000       6.10306000      -3.52406000
C        0.36890220       5.11862021       8.70445434       0.00000000      -0.59615000       3.30757000       0.17116000
C        6.09661905       6.05141201      13.64367339       0.00000000      -8.44539000       0.89723000       3.19318000
C        9.87547325      11.06680278       6.19768720       0.00000000      -5.25942000       7.29444000      -5.80619000
C        0.13201897       4.09566370       0.79574367       0.00000000       2.99429000      -4.11977000      -1.62049000
C        3.91695527      13.66100529      12.54268867       0.00000000      -3.39230000       1.03701000       1.75002000
C        7.94205830       3.97993756      11.20766088       0.00000000      -1.72045000      -1.96941000       1.10863000
C        7.50435495       6.49807919       1.91095690       0.00000000      -7.00387000       1.33500000       0.25150000
C        5.64107118       7.32196123       7.09749158       0.00000000      -1.83239000      -3.31465000       0.44129000
200
Lattice="13.854441 0.0 0.0 0.0 13.854441 0.0 0.0 0.0 13.854441" Properties=species:S:1:pos:R:3:initial_magmoms:R:1:forces:R:3 energy=-30902.5422196 pbc="T T T"
C        3.69061527      11.49085951       6.20119237       0.00000000       0.88430000      -3.73071000       0.07895000
C       11.84924619       6.24509710      12.62718691       0.00000000      -2.75612000      -5.14428000      -0.71118000
C        5.27858358      11.59332696       6.90071695       0.00000000      -3.23004000      -3.10011000      -1.46722000
C        6.21385533       0.88791727      13.59043077       0.00000000      -1.49374000      -4.28236000       0.87751000
C       13.36393837       4.09691060       7.16860643       0.00000000     -12.01542000      -3.82803000       4.49262000
C       13.20955833       6.87842516       9.48826934       0.00000000       0.22763000       1.53898000       2.03211000
C        0.04578893      10.61643647       9.51459277       0.00000000       2.13382000       1.58386000       2.05425000
C        8.55267894       4.71210320       2.28179872       0.00000000      -1.79987000      -1.89964000       0.18646000
C        5.29393430       5.08013257      13.19814228       0.00000000      -2.40008000       3.35512000       2.95431000
C       10.36991054       8.68926987       1.98446857       0.00000000      -2.33800000       1.41149000      -1.06598000
C       11.26688862       0.35270636      13.53526239       0.00000000      -1.26722000      -0.23560000       0.53660000
C        8.91501413      13.80409396      10.94980203       0.00000000      -4.53182000       2.37412000      -0.87537000
C        7.56089492       8.65805581       3.59050308       0.00000000      -2.37073000      -1.16266000       3.53132000
C        4.79103195       6.33610692       8.05576170       0.00000000       0.30624000       1.49130000      -0.09436000
C        2.20932614       2.32693649       6.64862155       0.00000000       4.01113000       0.86458000      -0.16019000
C       10.03963453       0.89470595       6.58392131       0.00000000      -0.48253000       0.77465000       1.33943000
C        1.03517612       5.73942386       4.62022055       0.00000000      -0.59988000      -1.23979000       0.63256000
C       13.37743260       7.22074069       8.23624350       0.00000000       2.28440000      -0.34429000      -2.19893000
C        2.31074065       6.39307638       6.22680924       0.00000000       4.58663000       0.61756000      -0.18317000
C       10.05124455      13.11683056       5.99002298       0.00000000      -5.99223000      -8.61295000       1.27774000
C        7.89421892      10.46492430       6.30447723       0.00000000      -0.45052000      -0.96276000       0.51769000
C        6.09110499       9.87232830       4.01137328       0.00000000       0.11603000       0.27607000      -0.93350000
C        3.99732488       1.59952292       6.77242483       0.00000000      -2.95493000       0.78212000       0.23344000
C        7.36702973       0.91117888      10.71459518       0.00000000       1.96172000      -3.20696000       3.29859000
C       12.34344796       0.14978036       5.36881756       0.00000000      -4.18663000       1.37488000      -0.93727000
C        7.94410876       8.86811685      11.42927652       0.00000000       3.03988000      -4.36798000       1.24661000
C       13.42322152       4.48126050       5.64078024       0.00000000       2.28264000       0.45227000       1.24899000
C       10.32053332       7.22241707       3.83999385       0.00000000      -1.33523000       0.47288000      -2.76883000
C       12.71506563       2.86687177       7.85744923       0.00000000      -2.95080000       0.27374000      -1.16962000
C       12.76485849       7.18453903      12.25967015       0.00000000      -0.65066000       1.72890000       1.54429000
C        5.48455756      11.10535969       5.52986158       0.00000000       3.13784000       1.21036000      -0.68910000
C        0.82198398       7.45729141       9.47725506       0.00000000      -3.19437000      -4.20458000       0.05072000
C       10.12975766       5.67746680      12.02460185       0.00000000       1.26293000      -0.00709000      -1.90871000
C        3.21909322       9.24196508      10.89424572       0.00000000      -3.68054000       1.47099000       3.13466000
C        1.16084976       0.63475507       4.61765748       0.00000000       3.20184000       0.22218000       8.21690000
C        0.50099044       7.44590306      13.73000041       0.00000000       0.24362000       1.17398000       1.61087000
C        0.87796978       4.29820178       3.44864745       0.00000000      -2.75956000      -0.57027000      -1.06861000
C        5.38864326      13.76888983      12.16128977       0.00000000       1.20589000       0.97467000       0.44314000
C        1.57939242       7.74290071      11.31077949       0.00000000      -1.07016000      10.32178000      -6.76528000
C        1.27816916      10.86149382       0.79248788       0.00000000      -2.96186000      -1.25835000      -0.39564000
C       11.88392386       4.46348526      12.62875246       0.00000000       2.00829000      -0.37128000       2.47428000
C        0.96781583      13.41355112      10.06744039       0.00000000      -1.91897000      -0.40805000       4.14468000
C        4.45478467      13.31454729       1.16576808       0.00000000      -0.66238000       1.42555000      -5.12474000